LAMMPS Description

         400  atoms
        2340  bonds
           0  angles
           0  dihedrals
           0  impropers

           0  atom types
           0  bond types
           0  angle types
           0  dihedral types
           0  improper types

 -5.231333333333334 5.231333333333334 xlo xhi
 -5.165666666666667 5.165666666666667 ylo yhi
 -0.5400000000000003 100.67933333333332 zlo zhi

Atoms

   1  1  1  0.0  3.231333  0.298833  23.611333  0  0  0
   2  1  1  0.0  2.790167 -1.657333  91.295667  0  0  0
   3  1  1  0.0  2.438500  2.141000  14.997000  0  0  0
   4  1  1  0.0 -2.438500 -2.141000  67.913667  0  0  0
   5  1  1  0.0  2.438500  2.141000   2.690667  0  0  0
   6  1  1  0.0 -0.714000 -3.165667  88.834333  0  0  0
   7  1  1  0.0 -1.283167  2.980833  64.221667  0  0  0
   8  1  1  0.0  3.231333  0.298833  13.766333  0  0  0
   9  1  1  0.0 -2.790167  1.657333  62.991333  0  0  0
  10  1  1  0.0  3.231333  0.298833  26.072667  0  0  0
  11  1  1  0.0  1.283167 -2.980833  80.220000  0  0  0
  12  1  1  0.0  3.231333  0.298833  43.301333  0  0  0
  13  1  1  0.0  0.714000  3.165667  97.448667  0  0  0
  14  1  1  0.0 -3.231333 -0.298833  78.989333  0  0  0
  15  1  1  0.0 -2.790167  1.657333  97.448667  0  0  0
  16  1  1  0.0  1.283167 -2.980833  18.688667  0  0  0
  17  1  1  0.0 -1.283167  2.980833  88.834333  0  0  0
  18  1  1  0.0  0.714000  3.165667  26.072667  0  0  0
  19  1  1  0.0 -2.438500 -2.141000  62.991333  0  0  0
  20  1  1  0.0 -1.283167  2.980833  22.380667  0  0  0
  21  1  1  0.0 -0.714000 -3.165667  86.373000  0  0  0
  22  1  1  0.0  3.231333  0.298833  62.991333  0  0  0
  23  1  1  0.0  2.438500  2.141000  12.535667  0  0  0
  24  1  1  0.0  3.231333  0.298833  70.375000  0  0  0
  25  1  1  0.0 -2.790167  1.657333  28.533667  0  0  0
  26  1  1  0.0 -2.438500 -2.141000  75.297333  0  0  0
  27  1  1  0.0  1.283167 -2.980833  21.150000  0  0  0
  28  1  1  0.0  2.438500  2.141000  46.993333  0  0  0
  29  1  1  0.0 -3.231333 -0.298833  98.679333  0  0  0
  30  1  1  0.0 -2.438500 -2.141000  58.068667  0  0  0
  31  1  1  0.0 -2.790167  1.657333  55.607333  0  0  0
  32  1  1  0.0  2.790167 -1.657333   7.613333  0  0  0
  33  1  1  0.0  2.438500  2.141000  69.144333  0  0  0
  34  1  1  0.0  1.283167 -2.980833  55.607333  0  0  0
  35  1  1  0.0 -2.438500 -2.141000  90.065000  0  0  0
  36  1  1  0.0 -0.714000 -3.165667  66.683000  0  0  0
  37  1  1  0.0 -2.438500 -2.141000  45.762667  0  0  0
  38  1  1  0.0 -0.714000 -3.165667   2.690667  0  0  0
  39  1  1  0.0  2.790167 -1.657333  10.074333  0  0  0
  40  1  1  0.0  0.714000  3.165667  43.301333  0  0  0
  41  1  1  0.0  2.790167 -1.657333  74.066667  0  0  0
  42  1  1  0.0  1.283167 -2.980833   1.460000  0  0  0
  43  1  1  0.0  2.790167 -1.657333  81.450667  0  0  0
  44  1  1  0.0 -2.790167  1.657333  75.297333  0  0  0
  45  1  1  0.0 -2.438500 -2.141000   3.921333  0  0  0
  46  1  1  0.0 -2.438500 -2.141000  70.375000  0  0  0
  47  1  1  0.0  3.231333  0.298833  38.378667  0  0  0
  48  1  1  0.0 -0.714000 -3.165667  10.074333  0  0  0
  49  1  1  0.0 -2.438500 -2.141000  53.146333  0  0  0
  50  1  1  0.0  2.438500  2.141000  66.683000  0  0  0
  51  1  1  0.0 -1.283167  2.980833  93.756667  0  0  0
  52  1  1  0.0 -2.790167  1.657333  67.913667  0  0  0
  53  1  1  0.0 -0.714000 -3.165667  32.225667  0  0  0
  54  1  1  0.0  2.438500  2.141000  81.450667  0  0  0
  55  1  1  0.0  0.714000  3.165667  18.688667  0  0  0
  56  1  1  0.0 -1.283167  2.980833  39.609333  0  0  0
  57  1  1  0.0 -2.438500 -2.141000  23.611333  0  0  0
  58  1  1  0.0  1.283167 -2.980833  87.603667  0  0  0
  59  1  1  0.0  1.283167 -2.980833  35.917667  0  0  0
  60  1  1  0.0  1.283167 -2.980833  70.375000  0  0  0
  61  1  1  0.0  3.231333  0.298833  35.917667  0  0  0
  62  1  1  0.0  1.283167 -2.980833  62.991333  0  0  0
  63  1  1  0.0 -2.790167  1.657333  65.452333  0  0  0
  64  1  1  0.0  1.283167 -2.980833  58.068667  0  0  0
  65  1  1  0.0 -3.231333 -0.298833  86.373000  0  0  0
  66  1  1  0.0 -2.790167  1.657333  38.378667  0  0  0
  67  1  1  0.0  1.283167 -2.980833  97.448667  0  0  0
  68  1  1  0.0  2.790167 -1.657333  49.454333  0  0  0
  69  1  1  0.0 -3.231333 -0.298833  39.609333  0  0  0
  70  1  1  0.0 -2.790167  1.657333  13.766333  0  0  0
  71  1  1  0.0 -3.231333 -0.298833  32.225667  0  0  0
  72  1  1  0.0  0.714000  3.165667  65.452333  0  0  0
  73  1  1  0.0  2.790167 -1.657333  88.834333  0  0  0
  74  1  1  0.0 -2.790167  1.657333  26.072667  0  0  0
  75  1  1  0.0  1.283167 -2.980833  53.146333  0  0  0
  76  1  1  0.0  1.283167 -2.980833  28.533667  0  0  0
  77  1  1  0.0  3.231333  0.298833  53.146333  0  0  0
  78  1  1  0.0 -3.231333 -0.298833  51.915667  0  0  0
  79  1  1  0.0  2.790167 -1.657333  98.679333  0  0  0
  80  1  1  0.0  3.231333  0.298833  55.607333  0  0  0
  81  1  1  0.0 -1.283167  2.980833   7.613333  0  0  0
  82  1  1  0.0  0.714000  3.165667  90.065000  0  0  0
  83  1  1  0.0  1.283167 -2.980833  33.456333  0  0  0
  84  1  1  0.0 -0.714000 -3.165667  44.532000  0  0  0
  85  1  1  0.0  3.231333  0.298833  82.681333  0  0  0
  86  1  1  0.0 -0.714000 -3.165667  59.299333  0  0  0
  87  1  1  0.0 -2.438500 -2.141000  82.681333  0  0  0
  88  1  1  0.0 -1.283167  2.980833  54.376667  0  0  0
  89  1  1  0.0 -2.438500 -2.141000  30.995000  0  0  0
  90  1  1  0.0 -3.231333 -0.298833   2.690667  0  0  0
  91  1  1  0.0 -2.438500 -2.141000  21.150000  0  0  0
  92  1  1  0.0 -1.283167  2.980833  34.687000  0  0  0
  93  1  1  0.0  2.438500  2.141000  86.373000  0  0  0
  94  1  1  0.0 -2.790167  1.657333  45.762667  0  0  0
  95  1  1  0.0 -0.714000 -3.165667  76.528000  0  0  0
  96  1  1  0.0 -2.438500 -2.141000  92.526333  0  0  0
  97  1  1  0.0  1.283167 -2.980833   8.843667  0  0  0
  98  1  1  0.0  0.714000  3.165667  92.526333  0  0  0
  99  1  1  0.0 -1.283167  2.980833  59.299333  0  0  0
 100  1  1  0.0  0.714000  3.165667  53.146333  0  0  0
 101  1  1  0.0  1.283167 -2.980833  60.530000  0  0  0
 102  1  1  0.0 -3.231333 -0.298833  64.221667  0  0  0
 103  1  1  0.0  1.283167 -2.980833  82.681333  0  0  0
 104  1  1  0.0  0.714000  3.165667  60.530000  0  0  0
 105  1  1  0.0 -1.283167  2.980833   5.152000  0  0  0
 106  1  1  0.0 -1.283167  2.980833  37.148333  0  0  0
 107  1  1  0.0 -3.231333 -0.298833  22.380667  0  0  0
 108  1  1  0.0 -2.438500 -2.141000  28.533667  0  0  0
 109  1  1  0.0 -2.438500 -2.141000  16.227667  0  0  0
 110  1  1  0.0 -3.231333 -0.298833  56.838000  0  0  0
 111  1  1  0.0  0.714000  3.165667   6.382667  0  0  0
 112  1  1  0.0 -0.714000 -3.165667  61.760667  0  0  0
 113  1  1  0.0 -2.438500 -2.141000  26.072667  0  0  0
 114  1  1  0.0 -2.790167  1.657333  58.068667  0  0  0
 115  1  1  0.0 -1.283167  2.980833  27.303333  0  0  0
 116  1  1  0.0 -0.714000 -3.165667  56.838000  0  0  0
 117  1  1  0.0  3.231333  0.298833  90.065000  0  0  0
 118  1  1  0.0 -2.438500 -2.141000  35.917667  0  0  0
 119  1  1  0.0 -1.283167  2.980833  44.532000  0  0  0
 120  1  1  0.0 -2.438500 -2.141000   1.460000  0  0  0
 121  1  1  0.0  0.714000  3.165667   8.843667  0  0  0
 122  1  1  0.0 -2.790167  1.657333  33.456333  0  0  0
 123  1  1  0.0 -2.790167  1.657333  60.530000  0  0  0
 124  1  1  0.0 -1.283167  2.980833  51.915667  0  0  0
 125  1  1  0.0  0.714000  3.165667  75.297333  0  0  0
 126  1  1  0.0  3.231333  0.298833  33.456333  0  0  0
 127  1  1  0.0  2.790167 -1.657333  54.376667  0  0  0
 128  1  1  0.0  1.283167 -2.980833  75.297333  0  0  0
 129  1  1  0.0 -0.714000 -3.165667   7.613333  0  0  0
 130  1  1  0.0 -2.790167  1.657333  85.142333  0  0  0
 131  1  1  0.0 -2.438500 -2.141000  94.987333  0  0  0
 132  1  1  0.0  3.231333  0.298833   6.382667  0  0  0
 133  1  1  0.0 -0.714000 -3.165667  39.609333  0  0  0
 134  1  1  0.0  2.438500  2.141000   7.613333  0  0  0
 135  1  1  0.0  2.438500  2.141000  10.074333  0  0  0
 136  1  1  0.0 -2.438500 -2.141000  50.685000  0  0  0
 137  1  1  0.0  0.714000  3.165667  48.223667  0  0  0
 138  1  1  0.0  2.790167 -1.657333  29.764333  0  0  0
 139  1  1  0.0  3.231333  0.298833  18.688667  0  0  0
 140  1  1  0.0 -0.714000 -3.165667  22.380667  0  0  0
 141  1  1  0.0 -2.790167  1.657333  87.603667  0  0  0
 142  1  1  0.0 -2.438500 -2.141000   6.382667  0  0  0
 143  1  1  0.0  1.283167 -2.980833  13.766333  0  0  0
 144  1  1  0.0  1.283167 -2.980833  30.995000  0  0  0
 145  1  1  0.0 -3.231333 -0.298833  37.148333  0  0  0
 146  1  1  0.0  0.714000  3.165667  67.913667  0  0  0
 147  1  1  0.0 -3.231333 -0.298833   5.152000  0  0  0
 148  1  1  0.0  2.790167 -1.657333  22.380667  0  0  0
 149  1  1  0.0  2.790167 -1.657333  19.919333  0  0  0
 150  1  1  0.0  0.714000  3.165667  40.840000  0  0  0
 151  1  1  0.0 -1.283167  2.980833  83.911667  0  0  0
 152  1  1  0.0  0.714000  3.165667  58.068667  0  0  0
 153  1  1  0.0 -2.790167  1.657333  23.611333  0  0  0
 154  1  1  0.0  0.714000  3.165667  82.681333  0  0  0
 155  1  1  0.0  0.714000  3.165667  85.142333  0  0  0
 156  1  1  0.0  1.283167 -2.980833  50.685000  0  0  0
 157  1  1  0.0 -3.231333 -0.298833  54.376667  0  0  0
 158  1  1  0.0  2.438500  2.141000  61.760667  0  0  0
 159  1  1  0.0  1.283167 -2.980833  90.065000  0  0  0
 160  1  1  0.0  2.790167 -1.657333  46.993333  0  0  0
 161  1  1  0.0 -2.790167  1.657333  16.227667  0  0  0
 162  1  1  0.0 -1.283167  2.980833  10.074333  0  0  0
 163  1  1  0.0 -2.438500 -2.141000  43.301333  0  0  0
 164  1  1  0.0  2.438500  2.141000  91.295667  0  0  0
 165  1  1  0.0 -3.231333 -0.298833  49.454333  0  0  0
 166  1  1  0.0 -0.714000 -3.165667  98.679333  0  0  0
 167  1  1  0.0  2.790167 -1.657333  27.303333  0  0  0
 168  1  1  0.0  0.714000  3.165667  94.987333  0  0  0
 169  1  1  0.0  2.438500  2.141000  98.679333  0  0  0
 170  1  1  0.0 -1.283167  2.980833  78.989333  0  0  0
 171  1  1  0.0 -2.438500 -2.141000  85.142333  0  0  0
 172  1  1  0.0 -3.231333 -0.298833  14.997000  0  0  0
 173  1  1  0.0 -2.790167  1.657333  53.146333  0  0  0
 174  1  1  0.0 -1.283167  2.980833  69.144333  0  0  0
 175  1  1  0.0  2.790167 -1.657333  51.915667  0  0  0
 176  1  1  0.0 -3.231333 -0.298833  19.919333  0  0  0
 177  1  1  0.0 -2.438500 -2.141000  97.448667  0  0  0
 178  1  1  0.0  2.790167 -1.657333  69.144333  0  0  0
 179  1  1  0.0 -0.714000 -3.165667  83.911667  0  0  0
 180  1  1  0.0  2.790167 -1.657333  44.532000  0  0  0
 181  1  1  0.0 -0.714000 -3.165667  12.535667  0  0  0
 182  1  1  0.0  0.714000  3.165667  23.611333  0  0  0
 183  1  1  0.0 -2.790167  1.657333  72.836333  0  0  0
 184  1  1  0.0 -2.438500 -2.141000  60.530000  0  0  0
 185  1  1  0.0  0.714000  3.165667  87.603667  0  0  0
 186  1  1  0.0 -2.438500 -2.141000  80.220000  0  0  0
 187  1  1  0.0 -3.231333 -0.298833  93.756667  0  0  0
 188  1  1  0.0  2.790167 -1.657333  14.997000  0  0  0
 189  1  1  0.0  3.231333  0.298833  72.836333  0  0  0
 190  1  1  0.0 -1.283167  2.980833  76.528000  0  0  0
 191  1  1  0.0 -1.283167  2.980833  14.997000  0  0  0
 192  1  1  0.0 -3.231333 -0.298833  42.070667  0  0  0
 193  1  1  0.0 -0.714000 -3.165667  74.066667  0  0  0
 194  1  1  0.0  1.283167 -2.980833  43.301333  0  0  0
 195  1  1  0.0  3.231333  0.298833  21.150000  0  0  0
 196  1  1  0.0  0.714000  3.165667   3.921333  0  0  0
 197  1  1  0.0 -2.438500 -2.141000  65.452333  0  0  0
 198  1  1  0.0  2.438500  2.141000  27.303333  0  0  0
 199  1  1  0.0  2.790167 -1.657333  56.838000  0  0  0
 200  1  1  0.0 -1.283167  2.980833  32.225667  0  0  0
 201  1  1  0.0 -1.283167  2.980833  46.993333  0  0  0
 202  1  1  0.0 -2.438500 -2.141000  55.607333  0  0  0
 203  1  1  0.0  0.714000  3.165667  30.995000  0  0  0
 204  1  1  0.0 -2.438500 -2.141000  13.766333  0  0  0
 205  1  1  0.0  2.438500  2.141000  34.687000  0  0  0
 206  1  1  0.0  1.283167 -2.980833   6.382667  0  0  0
 207  1  1  0.0 -2.790167  1.657333  43.301333  0  0  0
 208  1  1  0.0  0.714000  3.165667  33.456333  0  0  0
 209  1  1  0.0 -2.438500 -2.141000   8.843667  0  0  0
 210  1  1  0.0  2.790167 -1.657333  59.299333  0  0  0
 211  1  1  0.0  0.714000  3.165667  77.758667  0  0  0
 212  1  1  0.0  2.790167 -1.657333  71.605667  0  0  0
 213  1  1  0.0  2.790167 -1.657333  39.609333  0  0  0
 214  1  1  0.0 -3.231333 -0.298833  96.218000  0  0  0
 215  1  1  0.0  2.438500  2.141000  44.532000  0  0  0
 216  1  1  0.0  1.283167 -2.980833  38.378667  0  0  0
 217  1  1  0.0  0.714000  3.165667  72.836333  0  0  0
 218  1  1  0.0 -2.438500 -2.141000  38.378667  0  0  0
 219  1  1  0.0  1.283167 -2.980833  23.611333  0  0  0
 220  1  1  0.0  2.790167 -1.657333   5.152000  0  0  0
 221  1  1  0.0  2.438500  2.141000  49.454333  0  0  0
 222  1  1  0.0 -0.714000 -3.165667  71.605667  0  0  0
 223  1  1  0.0  2.438500  2.141000  22.380667  0  0  0
 224  1  1  0.0  0.714000  3.165667  11.305000  0  0  0
 225  1  1  0.0 -1.283167  2.980833  24.842000  0  0  0
 226  1  1  0.0  3.231333  0.298833  65.452333  0  0  0
 227  1  1  0.0 -2.790167  1.657333   3.921333  0  0  0
 228  1  1  0.0 -2.790167  1.657333   1.460000  0  0  0
 229  1  1  0.0  2.438500  2.141000  42.070667  0  0  0
 230  1  1  0.0 -0.714000 -3.165667   5.152000  0  0  0
 231  1  1  0.0  2.790167 -1.657333  37.148333  0  0  0
 232  1  1  0.0 -3.231333 -0.298833  66.683000  0  0  0
 233  1  1  0.0  2.438500  2.141000  96.218000  0  0  0
 234  1  1  0.0 -3.231333 -0.298833  88.834333  0  0  0
 235  1  1  0.0 -2.790167  1.657333   8.843667  0  0  0
 236  1  1  0.0 -3.231333 -0.298833  61.760667  0  0  0
 237  1  1  0.0  2.790167 -1.657333  86.373000  0  0  0
 238  1  1  0.0  0.714000  3.165667  80.220000  0  0  0
 239  1  1  0.0  0.714000  3.165667  16.227667  0  0  0
 240  1  1  0.0  2.438500  2.141000  29.764333  0  0  0
 241  1  1  0.0 -2.790167  1.657333  92.526333  0  0  0
 242  1  1  0.0 -0.714000 -3.165667  34.687000  0  0  0
 243  1  1  0.0  1.283167 -2.980833  94.987333  0  0  0
 244  1  1  0.0 -2.790167  1.657333  70.375000  0  0  0
 245  1  1  0.0 -1.283167  2.980833  98.679333  0  0  0
 246  1  1  0.0 -0.714000 -3.165667  37.148333  0  0  0
 247  1  1  0.0  2.438500  2.141000  51.915667  0  0  0
 248  1  1  0.0 -2.790167  1.657333  18.688667  0  0  0
 249  1  1  0.0 -3.231333 -0.298833  69.144333  0  0  0
 250  1  1  0.0 -1.283167  2.980833  12.535667  0  0  0
 251  1  1  0.0  1.283167 -2.980833  92.526333  0  0  0
 252  1  1  0.0  2.438500  2.141000  17.458333  0  0  0
 253  1  1  0.0  1.283167 -2.980833  77.758667  0  0  0
 254  1  1  0.0 -3.231333 -0.298833  27.303333  0  0  0
 255  1  1  0.0  3.231333  0.298833  40.840000  0  0  0
 256  1  1  0.0 -0.714000 -3.165667  49.454333  0  0  0
 257  1  1  0.0  2.790167 -1.657333   2.690667  0  0  0
 258  1  1  0.0  2.790167 -1.657333  76.528000  0  0  0
 259  1  1  0.0 -2.790167  1.657333  80.220000  0  0  0
 260  1  1  0.0  2.438500  2.141000  59.299333  0  0  0
 261  1  1  0.0  1.283167 -2.980833  72.836333  0  0  0
 262  1  1  0.0 -1.283167  2.980833  61.760667  0  0  0
 263  1  1  0.0 -2.790167  1.657333  30.995000  0  0  0
 264  1  1  0.0 -0.714000 -3.165667  54.376667  0  0  0
 265  1  1  0.0  1.283167 -2.980833  16.227667  0  0  0
 266  1  1  0.0 -1.283167  2.980833  66.683000  0  0  0
 267  1  1  0.0 -0.714000 -3.165667  78.989333  0  0  0
 268  1  1  0.0 -2.438500 -2.141000  48.223667  0  0  0
 269  1  1  0.0  0.714000  3.165667  13.766333  0  0  0
 270  1  1  0.0  1.283167 -2.980833  67.913667  0  0  0
 271  1  1  0.0 -0.714000 -3.165667  46.993333  0  0  0
 272  1  1  0.0 -1.283167  2.980833  81.450667  0  0  0
 273  1  1  0.0  0.714000  3.165667  45.762667  0  0  0
 274  1  1  0.0 -0.714000 -3.165667  14.997000  0  0  0
 275  1  1  0.0  3.231333  0.298833  94.987333  0  0  0
 276  1  1  0.0 -3.231333 -0.298833  83.911667  0  0  0
 277  1  1  0.0  2.438500  2.141000  83.911667  0  0  0
 278  1  1  0.0  3.231333  0.298833   1.460000  0  0  0
 279  1  1  0.0 -0.714000 -3.165667  27.303333  0  0  0
 280  1  1  0.0  2.438500  2.141000  37.148333  0  0  0
 281  1  1  0.0 -2.790167  1.657333  40.840000  0  0  0
 282  1  1  0.0  3.231333  0.298833  67.913667  0  0  0
 283  1  1  0.0 -0.714000 -3.165667  96.218000  0  0  0
 284  1  1  0.0  2.438500  2.141000  24.842000  0  0  0
 285  1  1  0.0  3.231333  0.298833  11.305000  0  0  0
 286  1  1  0.0 -2.438500 -2.141000  33.456333  0  0  0
 287  1  1  0.0  3.231333  0.298833  60.530000  0  0  0
 288  1  1  0.0 -0.714000 -3.165667  24.842000  0  0  0
 289  1  1  0.0  0.714000  3.165667  50.685000  0  0  0
 290  1  1  0.0  2.438500  2.141000   5.152000  0  0  0
 291  1  1  0.0 -2.438500 -2.141000  11.305000  0  0  0
 292  1  1  0.0  2.438500  2.141000  39.609333  0  0  0
 293  1  1  0.0  2.438500  2.141000  32.225667  0  0  0
 294  1  1  0.0 -3.231333 -0.298833  59.299333  0  0  0
 295  1  1  0.0 -2.438500 -2.141000  40.840000  0  0  0
 296  1  1  0.0 -3.231333 -0.298833  10.074333  0  0  0
 297  1  1  0.0 -2.438500 -2.141000  18.688667  0  0  0
 298  1  1  0.0 -3.231333 -0.298833  76.528000  0  0  0
 299  1  1  0.0 -3.231333 -0.298833  29.764333  0  0  0
 300  1  1  0.0  2.438500  2.141000  88.834333  0  0  0
 301  1  1  0.0 -0.714000 -3.165667  51.915667  0  0  0
 302  1  1  0.0 -2.790167  1.657333  90.065000  0  0  0
 303  1  1  0.0 -1.283167  2.980833   2.690667  0  0  0
 304  1  1  0.0  2.790167 -1.657333  24.842000  0  0  0
 305  1  1  0.0 -1.283167  2.980833  71.605667  0  0  0
 306  1  1  0.0 -3.231333 -0.298833  91.295667  0  0  0
 307  1  1  0.0  2.790167 -1.657333  93.756667  0  0  0
 308  1  1  0.0  3.231333  0.298833  58.068667  0  0  0
 309  1  1  0.0  3.231333  0.298833  87.603667  0  0  0
 310  1  1  0.0 -3.231333 -0.298833  34.687000  0  0  0
 311  1  1  0.0  3.231333  0.298833   3.921333  0  0  0
 312  1  1  0.0  1.283167 -2.980833  40.840000  0  0  0
 313  1  1  0.0  2.790167 -1.657333  12.535667  0  0  0
 314  1  1  0.0 -2.790167  1.657333  35.917667  0  0  0
 315  1  1  0.0 -1.283167  2.980833  17.458333  0  0  0
 316  1  1  0.0 -1.283167  2.980833  86.373000  0  0  0
 317  1  1  0.0 -0.714000 -3.165667  42.070667  0  0  0
 318  1  1  0.0 -2.790167  1.657333  48.223667  0  0  0
 319  1  1  0.0 -3.231333 -0.298833   7.613333  0  0  0
 320  1  1  0.0  0.714000  3.165667  21.150000  0  0  0
 321  1  1  0.0  1.283167 -2.980833  26.072667  0  0  0
 322  1  1  0.0 -0.714000 -3.165667  91.295667  0  0  0
 323  1  1  0.0 -0.714000 -3.165667  19.919333  0  0  0
 324  1  1  0.0  2.790167 -1.657333  34.687000  0  0  0
 325  1  1  0.0  1.283167 -2.980833  65.452333  0  0  0
 326  1  1  0.0 -1.283167  2.980833  74.066667  0  0  0
 327  1  1  0.0 -3.231333 -0.298833  46.993333  0  0  0
 328  1  1  0.0 -3.231333 -0.298833  81.450667  0  0  0
 329  1  1  0.0 -2.790167  1.657333  50.685000  0  0  0
 330  1  1  0.0 -3.231333 -0.298833  17.458333  0  0  0
 331  1  1  0.0  1.283167 -2.980833  45.762667  0  0  0
 332  1  1  0.0 -3.231333 -0.298833  44.532000  0  0  0
 333  1  1  0.0 -2.790167  1.657333  77.758667  0  0  0
 334  1  1  0.0  2.790167 -1.657333  42.070667  0  0  0
 335  1  1  0.0 -2.790167  1.657333  82.681333  0  0  0
 336  1  1  0.0 -1.283167  2.980833  56.838000  0  0  0
 337  1  1  0.0  2.438500  2.141000  93.756667  0  0  0
 338  1  1  0.0 -0.714000 -3.165667  69.144333  0  0  0
 339  1  1  0.0  2.790167 -1.657333  78.989333  0  0  0
 340  1  1  0.0 -1.283167  2.980833  42.070667  0  0  0
 341  1  1  0.0 -2.438500 -2.141000  87.603667  0  0  0
 342  1  1  0.0  0.714000  3.165667   1.460000  0  0  0
 343  1  1  0.0 -2.790167  1.657333   6.382667  0  0  0
 344  1  1  0.0  3.231333  0.298833  97.448667  0  0  0
 345  1  1  0.0 -2.790167  1.657333  94.987333  0  0  0
 346  1  1  0.0  3.231333  0.298833  77.758667  0  0  0
 347  1  1  0.0  3.231333  0.298833  75.297333  0  0  0
 348  1  1  0.0  2.790167 -1.657333  96.218000  0  0  0
 349  1  1  0.0  1.283167 -2.980833  48.223667  0  0  0
 350  1  1  0.0  3.231333  0.298833  45.762667  0  0  0
 351  1  1  0.0  3.231333  0.298833   8.843667  0  0  0
 352  1  1  0.0  2.790167 -1.657333  32.225667  0  0  0
 353  1  1  0.0  3.231333  0.298833  48.223667  0  0  0
 354  1  1  0.0 -3.231333 -0.298833  24.842000  0  0  0
 355  1  1  0.0  2.790167 -1.657333  66.683000  0  0  0
 356  1  1  0.0  1.283167 -2.980833  85.142333  0  0  0
 357  1  1  0.0  1.283167 -2.980833   3.921333  0  0  0
 358  1  1  0.0  2.438500  2.141000  54.376667  0  0  0
 359  1  1  0.0 -1.283167  2.980833  49.454333  0  0  0
 360  1  1  0.0  2.790167 -1.657333  83.911667  0  0  0
 361  1  1  0.0  2.438500  2.141000  78.989333  0  0  0
 362  1  1  0.0 -0.714000 -3.165667  64.221667  0  0  0
 363  1  1  0.0  2.438500  2.141000  56.838000  0  0  0
 364  1  1  0.0 -2.438500 -2.141000  72.836333  0  0  0
 365  1  1  0.0  2.790167 -1.657333  64.221667  0  0  0
 366  1  1  0.0  2.438500  2.141000  19.919333  0  0  0
 367  1  1  0.0  2.438500  2.141000  64.221667  0  0  0
 368  1  1  0.0  3.231333  0.298833  50.685000  0  0  0
 369  1  1  0.0 -1.283167  2.980833  91.295667  0  0  0
 370  1  1  0.0  2.438500  2.141000  71.605667  0  0  0
 371  1  1  0.0  3.231333  0.298833  92.526333  0  0  0
 372  1  1  0.0  1.283167 -2.980833  11.305000  0  0  0
 373  1  1  0.0  0.714000  3.165667  70.375000  0  0  0
 374  1  1  0.0  0.714000  3.165667  38.378667  0  0  0
 375  1  1  0.0  0.714000  3.165667  55.607333  0  0  0
 376  1  1  0.0  2.438500  2.141000  74.066667  0  0  0
 377  1  1  0.0  0.714000  3.165667  62.991333  0  0  0
 378  1  1  0.0 -3.231333 -0.298833  71.605667  0  0  0
 379  1  1  0.0 -2.438500 -2.141000  77.758667  0  0  0
 380  1  1  0.0 -0.714000 -3.165667  17.458333  0  0  0
 381  1  1  0.0  2.438500  2.141000  76.528000  0  0  0
 382  1  1  0.0  3.231333  0.298833  80.220000  0  0  0
 383  1  1  0.0  0.714000  3.165667  28.533667  0  0  0
 384  1  1  0.0 -1.283167  2.980833  29.764333  0  0  0
 385  1  1  0.0 -1.283167  2.980833  96.218000  0  0  0
 386  1  1  0.0 -3.231333 -0.298833  74.066667  0  0  0
 387  1  1  0.0 -3.231333 -0.298833  12.535667  0  0  0
 388  1  1  0.0  3.231333  0.298833  85.142333  0  0  0
 389  1  1  0.0 -0.714000 -3.165667  29.764333  0  0  0
 390  1  1  0.0  3.231333  0.298833  30.995000  0  0  0
 391  1  1  0.0 -1.283167  2.980833  19.919333  0  0  0
 392  1  1  0.0  2.790167 -1.657333  17.458333  0  0  0
 393  1  1  0.0 -2.790167  1.657333  11.305000  0  0  0
 394  1  1  0.0 -0.714000 -3.165667  81.450667  0  0  0
 395  1  1  0.0 -2.790167  1.657333  21.150000  0  0  0
 396  1  1  0.0  3.231333  0.298833  28.533667  0  0  0
 397  1  1  0.0  2.790167 -1.657333  61.760667  0  0  0
 398  1  1  0.0  0.714000  3.165667  35.917667  0  0  0
 399  1  1  0.0  3.231333  0.298833  16.227667  0  0  0
 400  1  1  0.0 -0.714000 -3.165667  93.756667  0  0  0

Bonds

    1  1    1  149
    2  1    1  167
    3  1    1  182
    4  1    1  198
    5  1    1  219
    6  1    1  366
    7  1    2   58
    8  1    2  164
    9  1    2  243
   10  1    2  275
   11  1    2  309
   12  1    2  322
   13  1    3   55
   14  1    3  139
   15  1    3  188
   16  1    3  191
   17  1    3  224
   18  1    3  285
   19  1    4   52
   20  1    4  102
   21  1    4  222
   22  1    4  270
   23  1    4  362
   24  1    4  378
   25  1    5  111
   26  1    5  132
   27  1    5  257
   28  1    5  303
   29  1    6   73
   30  1    6   96
   31  1    6  171
   32  1    6  234
   33  1    6  251
   34  1    6  356
   35  1    7   52
   36  1    7  102
   37  1    7  104
   38  1    7  123
   39  1    7  146
   40  1    7  367
   41  1    8   39
   42  1    8  135
   43  1    8  143
   44  1    8  252
   45  1    8  269
   46  1    8  392
   47  1    9   19
   48  1    9   99
   49  1    9  232
   50  1    9  266
   51  1    9  294
   52  1    9  377
   53  1   10   18
   54  1   10  138
   55  1   10  148
   56  1   10  223
   57  1   10  240
   58  1   10  321
   59  1   11   95
   60  1   11  179
   61  1   11  186
   62  1   11  258
   63  1   11  360
   64  1   11  382
   65  1   12   28
   66  1   12   40
   67  1   12  160
   68  1   12  194
   69  1   12  213
   70  1   12  292
   71  1   13   15
   72  1   13   51
   73  1   13  337
   74  1   13  344
   75  1   14   26
   76  1   14   44
   77  1   14   87
   78  1   14  170
   79  1   14  267
   80  1   14  335
   81  1   15   13
   82  1   15   51
   83  1   15  177
   84  1   15  187
   85  1   16  139
   86  1   16  140
   87  1   16  148
   88  1   16  188
   89  1   16  274
   90  1   16  297
   91  1   17   98
   92  1   17  130
   93  1   17  155
   94  1   17  234
   95  1   17  241
   96  1   17  300
   97  1   18   10
   98  1   18   20
   99  1   18   74
  100  1   18  223
  101  1   18  240
  102  1   18  384
  103  1   19    9
  104  1   19   36
  105  1   19   62
  106  1   19   86
  107  1   19  232
  108  1   19  294
  109  1   20   18
  110  1   20   55
  111  1   20   74
  112  1   20  107
  113  1   20  223
  114  1   20  248
  115  1   21   35
  116  1   21   65
  117  1   21   87
  118  1   21  103
  119  1   21  159
  120  1   21  237
  121  1   22   50
  122  1   22   62
  123  1   22  210
  124  1   22  260
  125  1   22  355
  126  1   22  377
  127  1   23  121
  128  1   23  239
  129  1   23  250
  130  1   23  313
  131  1   23  351
  132  1   23  399
  133  1   24   41
  134  1   24   50
  135  1   24   60
  136  1   24  355
  137  1   24  373
  138  1   24  376
  139  1   25   71
  140  1   25  108
  141  1   25  200
  142  1   25  225
  143  1   25  354
  144  1   25  383
  145  1   26   14
  146  1   26   44
  147  1   26  128
  148  1   26  222
  149  1   26  267
  150  1   26  378
  151  1   27   91
  152  1   27  195
  153  1   27  288
  154  1   27  304
  155  1   27  380
  156  1   27  392
  157  1   28   12
  158  1   28   40
  159  1   28  160
  160  1   28  201
  161  1   28  289
  162  1   28  368
  163  1   29  131
  164  1   29  166
  165  1   29  245
  166  1   29  345
  167  1   30   64
  168  1   30  112
  169  1   30  114
  170  1   30  157
  171  1   30  236
  172  1   30  264
  173  1   31   78
  174  1   31   99
  175  1   31  124
  176  1   31  202
  177  1   31  294
  178  1   31  375
  179  1   32  129
  180  1   32  134
  181  1   32  285
  182  1   32  311
  183  1   32  357
  184  1   32  372
  185  1   33   72
  186  1   33  174
  187  1   33  178
  188  1   33  189
  189  1   33  217
  190  1   33  226
  191  1   34   80
  192  1   34   86
  193  1   34  175
  194  1   34  202
  195  1   34  210
  196  1   34  301
  197  1   35   21
  198  1   35   65
  199  1   35  159
  200  1   35  187
  201  1   35  302
  202  1   35  400
  203  1   36   19
  204  1   36   46
  205  1   36   60
  206  1   36   62
  207  1   36  232
  208  1   36  355
  209  1   37   94
  210  1   37  165
  211  1   37  192
  212  1   37  256
  213  1   37  317
  214  1   37  331
  215  1   38   90
  216  1   38  142
  217  1   38  206
  218  1   38  257
  219  1   39    8
  220  1   39   48
  221  1   39  132
  222  1   39  135
  223  1   39  143
  224  1   39  206
  225  1   40   12
  226  1   40   28
  227  1   40   56
  228  1   40  201
  229  1   40  207
  230  1   40  292
  231  1   41   24
  232  1   41   60
  233  1   41  193
  234  1   41  253
  235  1   41  346
  236  1   41  376
  237  1   42  120
  238  1   42  220
  239  1   42  230
  240  1   42  278
  241  1   43   54
  242  1   43  253
  243  1   43  346
  244  1   43  356
  245  1   43  388
  246  1   43  394
  247  1   44   14
  248  1   44   26
  249  1   44  125
  250  1   44  170
  251  1   44  305
  252  1   44  378
  253  1   45  129
  254  1   45  227
  255  1   45  319
  256  1   45  357
  257  1   46   36
  258  1   46   60
  259  1   46  193
  260  1   46  232
  261  1   46  244
  262  1   46  386
  263  1   47  205
  264  1   47  216
  265  1   47  229
  266  1   47  324
  267  1   47  334
  268  1   47  374
  269  1   48   39
  270  1   48  142
  271  1   48  143
  272  1   48  204
  273  1   48  206
  274  1   48  296
  275  1   49   75
  276  1   49  110
  277  1   49  116
  278  1   49  165
  279  1   49  173
  280  1   49  256
  281  1   50   22
  282  1   50   24
  283  1   50  266
  284  1   50  355
  285  1   50  373
  286  1   50  377
  287  1   51   13
  288  1   51   15
  289  1   51   82
  290  1   51  187
  291  1   51  302
  292  1   51  337
  293  1   52    4
  294  1   52    7
  295  1   52  102
  296  1   52  146
  297  1   52  305
  298  1   52  378
  299  1   53   59
  300  1   53   71
  301  1   53   76
  302  1   53  108
  303  1   53  118
  304  1   53  352
  305  1   54   43
  306  1   54  155
  307  1   54  211
  308  1   54  272
  309  1   54  346
  310  1   54  388
  311  1   55    3
  312  1   55   20
  313  1   55  139
  314  1   55  191
  315  1   55  223
  316  1   55  248
  317  1   56   40
  318  1   56   69
  319  1   56  207
  320  1   56  292
  321  1   56  314
  322  1   56  398
  323  1   57  153
  324  1   57  176
  325  1   57  219
  326  1   57  254
  327  1   57  279
  328  1   57  323
  329  1   58    2
  330  1   58  179
  331  1   58  309
  332  1   58  322
  333  1   58  341
  334  1   58  360
  335  1   59   53
  336  1   59   61
  337  1   59  118
  338  1   59  133
  339  1   59  213
  340  1   59  352
  341  1   60   24
  342  1   60   36
  343  1   60   41
  344  1   60   46
  345  1   60  193
  346  1   60  355
  347  1   61   59
  348  1   61  213
  349  1   61  292
  350  1   61  293
  351  1   61  352
  352  1   61  398
  353  1   62   19
  354  1   62   22
  355  1   62   36
  356  1   62   86
  357  1   62  210
  358  1   62  355
  359  1   63   72
  360  1   63  174
  361  1   63  197
  362  1   63  236
  363  1   63  249
  364  1   63  262
  365  1   64   30
  366  1   64  112
  367  1   64  127
  368  1   64  264
  369  1   64  308
  370  1   64  397
  371  1   65   21
  372  1   65   35
  373  1   65   87
  374  1   65  302
  375  1   65  316
  376  1   65  335
  377  1   66   92