LAMMPS Description

         160  atoms
         158  bonds
           0  angles
           0  dihedrals
           0  impropers

           0  atom types
           0  bond types
           0  angle types
           0  dihedral types
           0  improper types

 -36.37216666666667 36.372166666666665 xlo xhi
 -2.0000000000000004 10.100000000000001 ylo yhi
 -0.54 100.67933333333332 zlo zhi

Atoms

   1  1  1  0.0   5.656100  8.100000e+00  55.725900  0  0  0
   2  1  1  0.0   1.305300  8.100000e+00  51.374967  0  0  0
   3  1  1  0.0 -27.410733  8.100000e+00  22.658900  0  0  0
   4  1  1  0.0  -6.526367  8.100000e+00  43.543333  0  0  0
   5  1  1  0.0  17.838700  8.100000e+00  67.908400  0  0  0
   6  1  1  0.0 -30.021233  8.100000e+00  20.048467  0  0  0
   7  1  1  0.0 -16.098367  8.100000e+00  33.971300  0  0  0
   8  1  1  0.0 -24.800100  8.100000e+00  25.269567  0  0  0
   9  1  1  0.0 -19.579100  8.100000e+00  30.490600  0  0  0
  10  1  1  0.0 -26.540567  8.100000e+00  23.529100  0  0  0
  11  1  1  0.0 -33.502000  8.100000e+00  16.567700  0  0  0
  12  1  1  0.0 -11.747400  8.100000e+00  38.322300  0  0  0
  13  1  1  0.0 -29.151067  8.100000e+00  20.918600  0  0  0
  14  1  1  0.0  -3.915767  8.100000e+00  46.153900  0  0  0
  15  1  1  0.0  -7.396600  8.100000e+00  42.673100  0  0  0
  16  1  1  0.0  14.358067  8.100000e+00  64.427733  0  0  0
  17  1  1  0.0 -13.487867  8.100000e+00  36.581900  0  0  0
  18  1  1  0.0  23.059733  8.100000e+00  73.129433  0  0  0
  19  1  1  0.0  -0.435100  8.100000e+00  49.634600  0  0  0
  20  1  1  0.0  34.372167  8.100000e+00  84.441867  0  0  0
  21  1  1  0.0  23.929900  8.100000e+00  73.999667  0  0  0
  22  1  1  0.0 -10.877233  8.100000e+00  39.192433  0  0  0
  23  1  1  0.0  -4.785900  8.100000e+00  45.283733  0  0  0
  24  1  1  0.0  11.747400  8.100000e+00  61.817100  0  0  0
  25  1  1  0.0   8.266767  8.100000e+00  58.336433  0  0  0
  26  1  1  0.0 -25.670333  8.100000e+00  24.399333  0  0  0
  27  1  1  0.0 -31.761600  8.100000e+00  18.308100  0  0  0
  28  1  1  0.0 -22.189600  8.100000e+00  27.880067  0  0  0
  29  1  1  0.0  22.189600  8.100000e+00  72.259267  0  0  0
  30  1  1  0.0  16.098367  8.100000e+00  66.168033  0  0  0
  31  1  1  0.0 -21.319467  8.100000e+00  28.750233  0  0  0
  32  1  1  0.0  20.449300  8.100000e+00  70.518967  0  0  0
  33  1  1  0.0 -34.372167  8.100000e+00  15.697500  0  0  0
  34  1  1  0.0  27.410733  8.100000e+00  77.480433  0  0  0
  35  1  1  0.0   7.396600  8.100000e+00  57.466300  0  0  0
  36  1  1  0.0 -30.891400  8.100000e+00  19.178300  0  0  0
  37  1  1  0.0 -23.059733  8.100000e+00  27.009933  0  0  0
  38  1  1  0.0  21.319467  8.100000e+00  71.389100  0  0  0
  39  1  1  0.0  19.579100  8.100000e+00  69.648800  0  0  0
  40  1  1  0.0 -15.228233  8.100000e+00  34.841467  0  0  0
  41  1  1  0.0   4.785900  8.100000e+00  54.855667  0  0  0
  42  1  1  0.0  -8.266767  8.100000e+00  41.802900  0  0  0
  43  1  1  0.0  24.800100  8.100000e+00  74.869900  0  0  0
  44  1  1  0.0  -5.656100  8.100000e+00  44.413567  0  0  0
  45  1  1  0.0 -17.838700  8.100000e+00  32.231000  0  0  0
  46  1  1  0.0  18.708900  8.100000e+00  68.778600  0  0  0
  47  1  1  0.0  31.761600  8.100000e+00  81.831333  0  0  0
  48  1  1  0.0  -3.045633  8.100000e+00  47.024033  0  0  0
  49  1  1  0.0  12.617600  8.100000e+00  62.687333  0  0  0
  50  1  1  0.0  30.021233  8.100000e+00  80.090900  0  0  0
  51  1  1  0.0   9.136933  8.100000e+00  59.206567  0  0  0
  52  1  1  0.0  13.487867  8.100000e+00  63.557567  0  0  0
  53  1  1  0.0 -32.631833  8.100000e+00  17.437900  0  0  0
  54  1  1  0.0   3.045633  8.100000e+00  53.115300  0  0  0
  55  1  1  0.0  10.007067  8.100000e+00  60.076700  0  0  0
  56  1  1  0.0 -14.358067  8.100000e+00  35.711667  0  0  0
  57  1  1  0.0  26.540567  8.100000e+00  76.610300  0  0  0
  58  1  1  0.0 -16.968500  8.100000e+00  33.101167  0  0  0
  59  1  1  0.0  15.228233  8.100000e+00  65.297900  0  0  0
  60  1  1  0.0  28.280933  8.100000e+00  78.350567  0  0  0
  61  1  1  0.0  30.891400  8.100000e+00  80.961100  0  0  0
  62  1  1  0.0   3.915767  8.100000e+00  53.985467  0  0  0
  63  1  1  0.0  16.968500  8.100000e+00  67.038200  0  0  0
  64  1  1  0.0  25.670333  8.100000e+00  75.740100  0  0  0
  65  1  1  0.0  -1.305300  8.100000e+00  48.764400  0  0  0
  66  1  1  0.0 -18.708900  8.100000e+00  31.360833  0  0  0
  67  1  1  0.0 -20.449300  8.100000e+00  29.620400  0  0  0
  68  1  1  0.0   6.526367  8.100000e+00  56.596100  0  0  0
  69  1  1  0.0 -12.617600  8.100000e+00  37.452100  0  0  0
  70  1  1  0.0  -9.136933  8.100000e+00  40.932700  0  0  0
  71  1  1  0.0   2.175500  8.100000e+00  52.245133  0  0  0
  72  1  1  0.0  -2.175500  8.100000e+00  47.894200  0  0  0
  73  1  1  0.0  29.151067  8.100000e+00  79.220700  0  0  0
  74  1  1  0.0 -23.929900  8.100000e+00  26.139733  0  0  0
  75  1  1  0.0  10.877233  8.100000e+00  60.946900  0  0  0
  76  1  1  0.0  32.631833  8.100000e+00  82.701533  0  0  0
  77  1  1  0.0  33.502000  8.100000e+00  83.571700  0  0  0
  78  1  1  0.0 -10.007067  8.100000e+00  40.062567  0  0  0
  79  1  1  0.0   0.435100  8.100000e+00  50.504800  0  0  0
  80  1  1  0.0 -28.280933  8.100000e+00  21.788733  0  0  0
  81  1  1  0.0  -0.000033  1.332268e-16  90.065000  0  0  0
  82  1  1  0.0   0.000033  0.000000e+00  12.535667  0  0  0
  83  1  1  0.0   0.000033 -1.776357e-16  83.911667  0  0  0
  84  1  1  0.0  -0.000033  8.881784e-17  16.227667  0  0  0
  85  1  1  0.0   0.000033 -1.776357e-16  44.532000  0  0  0
  86  1  1  0.0  -0.000033  1.776357e-16  33.456333  0  0  0
  87  1  1  0.0  -0.000033  9.992007e-17  55.607333  0  0  0
  88  1  1  0.0   0.000033 -1.776357e-16  34.687000  0  0  0
  89  1  1  0.0   0.000033  3.330669e-17  76.528000  0  0  0
  90  1  1  0.0  -0.000033  8.881784e-17  62.991333  0  0  0
  91  1  1  0.0  -0.000033 -8.881784e-17  75.297333  0  0  0
  92  1  1  0.0  -0.000033  8.881784e-17  58.068667  0  0  0
  93  1  1  0.0  -0.000033  8.881784e-17  38.378667  0  0  0
  94  1  1  0.0   0.000033 -8.881784e-17  61.760667  0  0  0
  95  1  1  0.0   0.000033 -8.881784e-17  39.609333  0  0  0
  96  1  1  0.0  -0.000033  0.000000e+00  11.305000  0  0  0
  97  1  1  0.0  -0.000033  0.000000e+00  26.072667  0  0  0
  98  1  1  0.0  -0.000033  1.443290e-16  72.836333  0  0  0
  99  1  1  0.0  -0.000033  8.881784e-17  92.526333  0  0  0
 100  1  1  0.0  -0.000033  1.776357e-16  50.685000  0  0  0
 101  1  1  0.0  -0.000033  0.000000e+00  77.758667  0  0  0
 102  1  1  0.0   0.000033  0.000000e+00  71.605667  0  0  0
 103  1  1  0.0  -0.000033  0.000000e+00   8.843667  0  0  0
 104  1  1  0.0  -0.000033  0.000000e+00  18.688667  0  0  0
 105  1  1  0.0   0.000033  0.000000e+00  64.221667  0  0  0
 106  1  1  0.0   0.000033  3.330669e-17  96.218000  0  0  0
 107  1  1  0.0   0.000033 -4.440892e-17  10.074333  0  0  0
 108  1  1  0.0  -0.000033  0.000000e+00   1.460000  0  0  0
 109  1  1  0.0  -0.000033  1.776357e-16  80.220000  0  0  0
 110  1  1  0.0   0.000033 -8.881784e-17  54.376667  0  0  0
 111  1  1  0.0  -0.000033  4.440892e-17  48.223667  0  0  0
 112  1  1  0.0   0.000033 -5.551115e-17  49.454333  0  0  0
 113  1  1  0.0   0.000033 -1.776357e-16  32.225667  0  0  0
 114  1  1  0.0   0.000033  0.000000e+00  93.756667  0  0  0
 115  1  1  0.0  -0.000033  9.992007e-17  21.150000  0  0  0
 116  1  1  0.0   0.000033 -8.881784e-17  59.299333  0  0  0
 117  1  1  0.0  -0.000033  1.776357e-16  30.995000  0  0  0
 118  1  1  0.0   0.000033 -1.887379e-16  17.458333  0  0  0
 119  1  1  0.0   0.000033  0.000000e+00  78.989333  0  0  0
 120  1  1  0.0  -0.000033  8.881784e-17  94.987333  0  0  0
 121  1  1  0.0   0.000033  3.330669e-17  81.450667  0  0  0
 122  1  1  0.0  -0.000033 -8.881784e-17  67.913667  0  0  0
 123  1  1  0.0  -0.000033  0.000000e+00  28.533667  0  0  0
 124  1  1  0.0   0.000033 -1.776357e-16  91.295667  0  0  0
 125  1  1  0.0  -0.000033  0.000000e+00  45.762667  0  0  0
 126  1  1  0.0  -0.000033  1.776357e-16  13.766333  0  0  0
 127  1  1  0.0  -0.000033  8.881784e-17  97.448667  0  0  0
 128  1  1  0.0   0.000033 -1.776357e-16   2.690667  0  0  0
 129  1  1  0.0  -0.000033  1.776357e-16  53.146333  0  0  0
 130  1  1  0.0  -0.000033  8.881784e-17  23.611333  0  0  0
 131  1  1  0.0   0.000033 -1.776357e-16   7.613333  0  0  0
 132  1  1  0.0   0.000033  0.000000e+00  42.070667  0  0  0
 133  1  1  0.0  -0.000033  8.881784e-17   6.382667  0  0  0
 134  1  1  0.0  -0.000033  1.776357e-16  82.681333  0  0  0
 135  1  1  0.0   0.000033 -1.443290e-16  22.380667  0  0  0
 136  1  1  0.0   0.000033 -8.881784e-17  51.915667  0  0  0
 137  1  1  0.0  -0.000033 -8.881784e-17  65.452333  0  0  0
 138  1  1  0.0   0.000033 -8.881784e-17  29.764333  0  0  0
 139  1  1  0.0   0.000033  0.000000e+00  37.148333  0  0  0
 140  1  1  0.0   0.000033 -1.776357e-16  14.997000  0  0  0
 141  1  1  0.0   0.000033 -2.664535e-16  27.303333  0  0  0
 142  1  1  0.0   0.000033  0.000000e+00  66.683000  0  0  0
 143  1  1  0.0  -0.000033  1.776357e-16  43.301333  0  0  0
 144  1  1  0.0   0.000033  0.000000e+00  69.144333  0  0  0
 145  1  1  0.0  -0.000033  4.440892e-17  40.840000  0  0  0
 146  1  1  0.0   0.000033  0.000000e+00  86.373000  0  0  0
 147  1  1  0.0  -0.000033  1.332268e-16  35.917667  0  0  0
 148  1  1  0.0   0.000033 -1.776357e-16   5.152000  0  0  0
 149  1  1  0.0  -0.000033  8.881784e-17  70.375000  0  0  0
 150  1  1  0.0   0.000033 -1.776357e-16  24.842000  0  0  0
 151  1  1  0.0  -0.000033  4.440892e-17  60.530000  0  0  0
 152  1  1  0.0  -0.000033 -4.440892e-17  87.603667  0  0  0
 153  1  1  0.0   0.000033 -1.776357e-16  46.993333  0  0  0
 154  1  1  0.0   0.000033  3.330669e-17  98.679333  0  0  0
 155  1  1  0.0   0.000033  0.000000e+00  88.834333  0  0  0
 156  1  1  0.0   0.000033  0.000000e+00  74.066667  0  0  0
 157  1  1  0.0   0.000033 -8.881784e-17  19.919333  0  0  0
 158  1  1  0.0  -0.000033 -1.443290e-16  85.142333  0  0  0
 159  1  1  0.0  -0.000033 -8.881784e-17   3.921333  0  0  0
 160  1  1  0.0   0.000033  0.000000e+00  56.838000  0  0  0

Bonds

  1  1   51   55
  2  1   28   37
  3  1   70   78
  4  1   13   80
  5  1   14   48
  6  1    7   58
  7  1   30   59
  8  1   60   73
  9  1   30   63
 10  1   54   62
 11  1   32   38
 12  1   22   78
 13  1   25   35
 14  1   48   72
 15  1   29   38
 16  1   34   57
 17  1   18   29
 18  1    7   40
 19  1   28   31
 20  1   14   23
 21  1   12   22
 22  1    6   13
 23  1   25   51
 24  1   54   71
 25  1   16   59
 26  1    6   36
 27  1   20   77
 28  1   31   67
 29  1   76   77
 30  1   34   60
 31  1   41   62
 32  1   55   75
 33  1   45   58
 34  1    2   79
 35  1   15   42
 36  1   11   53
 37  1    8   74
 38  1   32   39
 39  1   40   56
 40  1   50   61
 41  1   23   44
 42  1    2   71
 43  1   45   66
 44  1    3   80
 45  1   37   74
 46  1    3   10
 47  1   42   70
 48  1   11   33
 49  1   50   73
 50  1   24   75
 51  1   16   52
 52  1   19   65
 53  1   19   79
 54  1    9   67
 55  1   27   36
 56  1   39   46
 57  1   12   69
 58  1   65   72
 59  1    5   46
 60  1    5   63
 61  1   18   21
 62  1   47   76
 63  1   43   64
 64  1   57   64
 65  1   47   61
 66  1   21   43
 67  1   24   49
 68  1    1   41
 69  1   35   68
 70  1   17   56
 71  1   27   53
 72  1    9   66
 73  1    8   26
 74  1   10   26
 75  1    4   15
 76  1   17   69
 77  1    1   68
 78  1   49   52
 79  1    4   44
  1  1   99  114
  2  1   98  156
  3  1  110  129
  4  1  103  131
  5  1   93  139
  6  1   83  134
  7  1  111  153
  8  1   90  105
  9  1  104  118
 10  1  123  141
 11  1   87  160
 12  1  109  121
 13  1  116  151
 14  1  127  154
 15  1   86  113
 16  1   85  125
 17  1  132  143
 18  1   92  160
 19  1   88  147
 20  1  117  138
 21  1  115  135
 22  1   81  155
 23  1  137  142
 24  1   81  124
 25  1   93   95
 26  1  105  137
 27  1  106  127
 28  1   90   94
 29  1   89  101
 30  1  102  149
 31  1  101  119
 32  1   97  150
 33  1   83  158
 34  1  129  136
 35  1   84  118
 36  1  152  155
 37  1  122  144
 38  1  130  150
 39  1  144  149
 40  1  146  158
 41  1  114  120
 42  1  111  112
 43  1  104  157
 44  1  121  134
 45  1   91  156
 46  1   82  126
 47  1  133  148
 48  1   82   96
 49  1  131  133
 50  1   96  107
 51  1  108  128
 52  1  128  159
 53  1  148  159
 54  1  103  107
 55  1  126  140
 56  1   84  140
 57  1  130  135
 58  1   97  141
 59  1   85  143
 60  1  100  112
 61  1  125  153
 62  1   86   88
 63  1  139  147
 64  1  132  145
 65  1   94  151
 66  1  100  136
 67  1  115  157
 68  1  123  138
 69  1   95  145
 70  1   99  124
 71  1  146  152
 72  1  122  142
 73  1   89   91
 74  1  113  117
 75  1  109  119
 76  1  106  120
 77  1   98  102
 78  1   87  110
 79  1   92  116
