LAMMPS Description

        1640  atoms
        2440  bonds
        4840  angles
           0  dihedrals
           0  impropers

           1  atom types
           1  bond types
           1  angle types
           0  dihedral types
           0  improper types

 36.840194 164.211568 xlo xhi
 41.013691 168.385058 ylo yhi
 29.768095 157.139462 zlo zhi

Masses

 1  12.011

Pair Coeffs

 1  0.07  1.9924  0.07  1.9924

Bond Coeffs

 1  305.0  1.335

Angle Coeffs

 1  40.0  120.0  0.0  0.0

Atoms

    1  1  1  0.0   3.076  11.492  53.085  0  0  0
    2  1  1  0.0   0.790  10.869  53.631  0  0  0
    3  1  1  0.0  -0.967   9.188  53.647  0  0  0
    4  1  1  0.0  -1.855   7.092  52.795  0  0  0
    5  1  1  0.0  -1.869   5.381  51.069  0  0  0
    6  1  1  0.0  -1.335   4.708  48.794  0  0  0
    7  1  1  0.0  -0.790   5.331  46.509  0  0  0
    8  1  1  0.0  -0.774   7.012  44.752  0  0  0
    9  1  1  0.0  16.998  11.492  67.008  0  0  0
   10  1  1  0.0 -15.778   7.092  38.872  0  0  0
   11  1  1  0.0 -22.753   5.381  30.184  0  0  0
   12  1  1  0.0  14.713  10.869  67.554  0  0  0
   13  1  1  0.0 -15.792   5.381  37.146  0  0  0
   14  1  1  0.0 -22.219   4.708  27.910  0  0  0
   15  1  1  0.0  12.956   9.188  67.570  0  0  0
   16  1  1  0.0 -15.258   4.708  34.871  0  0  0
   17  1  1  0.0 -21.674   5.331  25.624  0  0  0
   18  1  1  0.0 -28.619   7.012  16.906  0  0  0
   19  1  1  0.0 -14.713   5.331  32.586  0  0  0
   20  1  1  0.0 -21.658   7.012  23.868  0  0  0
   21  1  1  0.0 -14.697   7.012  30.829  0  0  0
   22  1  1  0.0 -29.701   7.092  24.949  0  0  0
   23  1  1  0.0 -21.851   9.188  32.763  0  0  0
   24  1  1  0.0  -7.735   7.012  37.791  0  0  0
   25  1  1  0.0  14.038   9.108  59.527  0  0  0
   26  1  1  0.0   7.748   9.759  53.634  0  0  0
   27  1  1  0.0   5.789  11.182  53.853  0  0  0
   28  1  1  0.0   3.446  11.427  54.455  0  0  0
   29  1  1  0.0   1.283  10.401  54.878  0  0  0
   30  1  1  0.0  -0.207   8.497  54.627  0  0  0
   31  1  1  0.0  -0.787   6.441  53.467  0  0  0
   32  1  1  0.0  -0.568   5.018  51.508  0  0  0
   33  1  1  0.0   0.034   4.773  49.165  0  0  0
   34  1  1  0.0   0.457   5.799  47.002  0  0  0
   35  1  1  0.0   0.207   7.703  45.512  0  0  0
   36  1  1  0.0 -22.740   7.092  31.911  0  0  0
   37  1  1  0.0 -32.952   9.108  12.537  0  0  0
   38  1  1  0.0   8.817   9.108  54.306  0  0  0
   39  1  1  0.0   7.090  10.819  54.292  0  0  0
   40  1  1  0.0   4.816  11.492  54.826  0  0  0
   41  1  1  0.0   2.530  10.869  55.371  0  0  0
   42  1  1  0.0   0.774   9.188  55.387  0  0  0
   43  1  1  0.0  -0.115   7.092  54.536  0  0  0
   44  1  1  0.0  -0.129   5.381  52.809  0  0  0
   45  1  1  0.0   0.405   4.708  50.535  0  0  0
   46  1  1  0.0   0.951   5.331  48.249  0  0  0
   47  1  1  0.0   0.967   7.012  46.492  0  0  0
   48  1  1  0.0  10.037  11.492  60.047  0  0  0
   49  1  1  0.0 -32.280   9.759  13.605  0  0  0
   50  1  1  0.0 -34.239  11.182  13.824  0  0  0
   51  1  1  0.0   9.489   9.759  55.374  0  0  0
   52  1  1  0.0   7.529  11.182  55.593  0  0  0
   53  1  1  0.0   5.187  11.427  56.195  0  0  0
   54  1  1  0.0   3.023  10.401  56.618  0  0  0
   55  1  1  0.0   1.533   8.497  56.368  0  0  0
   56  1  1  0.0   0.953   6.441  55.208  0  0  0
   57  1  1  0.0   1.173   5.018  53.248  0  0  0
   58  1  1  0.0   1.775   4.773  50.905  0  0  0
   59  1  1  0.0   2.198   5.799  48.742  0  0  0
   60  1  1  0.0   1.947   7.703  47.252  0  0  0
   61  1  1  0.0 -31.212   9.108  14.277  0  0  0
   62  1  1  0.0 -32.938  10.819  14.264  0  0  0
   63  1  1  0.0 -35.212  11.492  14.797  0  0  0
   64  1  1  0.0  10.557   9.108  56.046  0  0  0
   65  1  1  0.0   8.831  10.819  56.032  0  0  0
   66  1  1  0.0   6.556  11.492  56.566  0  0  0
   67  1  1  0.0   4.270  10.869  57.112  0  0  0
   68  1  1  0.0   2.514   9.188  57.128  0  0  0
   69  1  1  0.0   1.625   7.092  56.276  0  0  0
   70  1  1  0.0   1.612   5.381  54.549  0  0  0
   71  1  1  0.0   2.146   4.708  52.275  0  0  0
   72  1  1  0.0   2.691   5.331  49.989  0  0  0
   73  1  1  0.0   2.707   7.012  48.233  0  0  0
   74  1  1  0.0  -8.297   4.708  41.833  0  0  0
   75  1  1  0.0 -30.540   9.759  15.346  0  0  0
   76  1  1  0.0 -32.499  11.182  15.565  0  0  0
   77  1  1  0.0 -34.842  11.427  16.167  0  0  0
   78  1  1  0.0 -37.005  10.401  16.590  0  0  0
   79  1  1  0.0  11.229   9.759  57.114  0  0  0
   80  1  1  0.0   9.270  11.182  57.334  0  0  0
   81  1  1  0.0   6.927  11.427  57.936  0  0  0
   82  1  1  0.0   4.764  10.401  58.359  0  0  0
   83  1  1  0.0   3.274   8.497  58.108  0  0  0
   84  1  1  0.0   2.694   6.441  56.948  0  0  0
   85  1  1  0.0   2.913   5.018  54.988  0  0  0
   86  1  1  0.0   3.515   4.773  52.646  0  0  0
   87  1  1  0.0   3.938   5.799  50.483  0  0  0
   88  1  1  0.0   3.688   7.703  48.993  0  0  0
   89  1  1  0.0 -29.471   9.108  16.018  0  0  0
   90  1  1  0.0 -31.198  10.819  16.004  0  0  0
   91  1  1  0.0 -33.472  11.492  16.538  0  0  0
   92  1  1  0.0 -35.758  10.869  17.083  0  0  0
   93  1  1  0.0 -37.514   9.188  17.099  0  0  0
   94  1  1  0.0  10.571  10.819  57.773  0  0  0
   95  1  1  0.0   8.297  11.492  58.307  0  0  0
   96  1  1  0.0   6.011  10.869  58.852  0  0  0
   97  1  1  0.0   4.254   9.188  58.868  0  0  0
   98  1  1  0.0   3.366   7.092  58.016  0  0  0
   99  1  1  0.0   3.352   5.381  56.290  0  0  0
  100  1  1  0.0   3.886   4.708  54.015  0  0  0
  101  1  1  0.0   4.431   5.331  51.730  0  0  0
  102  1  1  0.0   4.447   7.012  49.973  0  0  0
  103  1  1  0.0 -21.671   6.441  32.583  0  0  0
  104  1  1  0.0 -28.414   5.018  23.662  0  0  0
  105  1  1  0.0   8.245  10.401  61.839  0  0  0
  106  1  1  0.0 -21.452   5.018  30.623  0  0  0
  107  1  1  0.0 -27.811   4.773  21.319  0  0  0
  108  1  1  0.0 -14.491   5.018  37.585  0  0  0
  109  1  1  0.0 -20.850   4.773  28.281  0  0  0
  110  1  1  0.0 -27.389   5.799  19.156  0  0  0
  111  1  1  0.0 -13.889   4.773  35.242  0  0  0
  112  1  1  0.0 -20.427   5.799  26.118  0  0  0
  113  1  1  0.0 -27.639   7.703  17.666  0  0  0
  114  1  1  0.0 -13.466   5.799  33.079  0  0  0
  115  1  1  0.0 -20.677   7.703  24.628  0  0  0
  116  1  1  0.0 -28.799   9.759  17.086  0  0  0
  117  1  1  0.0 -30.759  11.182  17.305  0  0  0
  118  1  1  0.0 -33.101  11.427  17.907  0  0  0
  119  1  1  0.0 -35.264  10.401  18.330  0  0  0
  120  1  1  0.0 -36.754   8.497  18.080  0  0  0
  121  1  1  0.0 -37.335   6.441  16.920  0  0  0
  122  1  1  0.0   8.667  11.427  59.676  0  0  0
  123  1  1  0.0   6.504  10.401  60.099  0  0  0
  124  1  1  0.0   5.014   8.497  59.849  0  0  0
  125  1  1  0.0   4.434   6.441  58.688  0  0  0
  126  1  1  0.0   4.653   5.018  56.729  0  0  0
  127  1  1  0.0   5.255   4.773  54.386  0  0  0
  128  1  1  0.0   5.678   5.799  52.223  0  0  0
  129  1  1  0.0   5.428   7.703  50.733  0  0  0
  130  1  1  0.0 -27.731   9.108  17.758  0  0  0
  131  1  1  0.0 -29.457  10.819  17.744  0  0  0
  132  1  1  0.0 -31.732  11.492  18.278  0  0  0
  133  1  1  0.0 -34.017  10.869  18.824  0  0  0
  134  1  1  0.0 -35.774   9.188  18.840  0  0  0
  135  1  1  0.0 -36.663   7.092  17.988  0  0  0
  136  1  1  0.0 -36.676   5.381  16.261  0  0  0
  137  1  1  0.0   7.751  10.869  60.592  0  0  0
  138  1  1  0.0   5.995   9.188  60.608  0  0  0
  139  1  1  0.0   5.106   7.092  59.757  0  0  0
  140  1  1  0.0   5.092   5.381  58.030  0  0  0
  141  1  1  0.0   5.626   4.708  55.756  0  0  0
  142  1  1  0.0   6.172   5.331  53.470  0  0  0
  143  1  1  0.0   6.188   7.012  51.714  0  0  0
  144  1  1  0.0 -27.059   9.759  18.826  0  0  0
  145  1  1  0.0 -29.018  11.182  19.046  0  0  0
  146  1  1  0.0 -31.361  11.427  19.648  0  0  0
  147  1  1  0.0 -33.524  10.401  20.071  0  0  0
  148  1  1  0.0 -35.014   8.497  19.820  0  0  0
  149  1  1  0.0  12.750  11.182  60.814  0  0  0
  150  1  1  0.0 -35.375   5.018  16.700  0  0  0
  151  1  1  0.0 -34.773   4.773  14.358  0  0  0
  152  1  1  0.0   6.755   8.497  61.589  0  0  0
  153  1  1  0.0   6.175   6.441  60.429  0  0  0
  154  1  1  0.0   6.394   5.018  58.469  0  0  0
  155  1  1  0.0   6.996   4.773  56.127  0  0  0
  156  1  1  0.0   7.419   5.799  53.963  0  0  0
  157  1  1  0.0   7.168   7.703  52.473  0  0  0
  158  1  1  0.0 -11.010   5.018  41.065  0  0  0
  159  1  1  0.0 -25.990   9.108  19.498  0  0  0
  160  1  1  0.0 -27.717  10.819  19.485  0  0  0
  161  1  1  0.0 -29.991  11.492  20.019  0  0  0
  162  1  1  0.0 -32.277  10.869  20.564  0  0  0
  163  1  1  0.0 -34.034   9.188  20.580  0  0  0
  164  1  1  0.0  14.052  10.819  61.253  0  0  0
  165  1  1  0.0  11.777  11.492  61.787  0  0  0
  166  1  1  0.0   9.492  10.869  62.333  0  0  0
  167  1  1  0.0   7.735   9.188  62.349  0  0  0
  168  1  1  0.0   6.846   7.092  61.497  0  0  0
  169  1  1  0.0   6.833   5.381  59.770  0  0  0
  170  1  1  0.0   7.367   4.708  57.496  0  0  0
  171  1  1  0.0   7.912   5.331  55.210  0  0  0
  172  1  1  0.0   7.928   7.012  53.454  0  0  0
  173  1  1  0.0 -10.408   4.773  38.723  0  0  0
  174  1  1  0.0  -4.049   5.018  48.027  0  0  0
  175  1  1  0.0 -25.319   9.759  20.567  0  0  0
  176  1  1  0.0 -27.278  11.182  20.786  0  0  0
  177  1  1  0.0 -29.621  11.427  21.388  0  0  0
  178  1  1  0.0 -31.784  10.401  21.811  0  0  0
  179  1  1  0.0 -33.274   8.497  21.561  0  0  0
  180  1  1  0.0 -33.854   6.441  20.400  0  0  0
  181  1  1  0.0  12.148  11.427  63.157  0  0  0
  182  1  1  0.0   9.985  10.401  63.580  0  0  0
  183  1  1  0.0   8.495   8.497  63.329  0  0  0
  184  1  1  0.0   7.915   6.441  62.169  0  0  0
  185  1  1  0.0   8.134   5.018  60.209  0  0  0
  186  1  1  0.0   8.736   4.773  57.867  0  0  0
  187  1  1  0.0   9.159   5.799  55.704  0  0  0
  188  1  1  0.0   8.909   7.703  54.214  0  0  0
  189  1  1  0.0   1.855   9.108  47.344  0  0  0
  190  1  1  0.0 -10.235   7.703  35.070  0  0  0
  191  1  1  0.0  15.778   9.108  61.267  0  0  0
  192  1  1  0.0 -27.072   9.188  27.541  0  0  0
  193  1  1  0.0 -25.977  10.819  21.225  0  0  0
  194  1  1  0.0 -34.922   7.092  19.728  0  0  0
  195  1  1  0.0 -30.537  10.869  22.304  0  0  0
  196  1  1  0.0 -32.293   9.188  22.320  0  0  0
  197  1  1  0.0 -33.182   7.092  21.469  0  0  0
  198  1  1  0.0 -33.196   5.381  19.742  0  0  0
  199  1  1  0.0 -32.662   4.708  17.468  0  0  0
  200  1  1  0.0 -32.116   5.331  15.182  0  0  0
  201  1  1  0.0 -32.100   7.012  13.426  0  0  0
  202  1  1  0.0   8.573   5.381  61.511  0  0  0
  203  1  1  0.0   9.107   4.708  59.236  0  0  0
  204  1  1  0.0   9.652   5.331  56.951  0  0  0
  205  1  1  0.0   9.669   7.012  55.194  0  0  0
  206  1  1  0.0 -34.402   4.708  15.727  0  0  0
  207  1  1  0.0 -21.013   5.381  31.925  0  0  0
  208  1  1  0.0 -27.441   4.708  22.689  0  0  0
  209  1  1  0.0 -33.857   5.331  13.442  0  0  0
  210  1  1  0.0 -20.479   4.708  29.650  0  0  0
  211  1  1  0.0  14.697   9.188  69.310  0  0  0
  212  1  1  0.0 -13.518   4.708  36.612  0  0  0
  213  1  1  0.0 -19.934   5.331  27.365  0  0  0
  214  1  1  0.0  13.808   7.092  68.458  0  0  0
  215  1  1  0.0 -12.972   5.331  34.326  0  0  0
  216  1  1  0.0 -34.936   5.381  18.002  0  0  0
  217  1  1  0.0 -20.111   9.188  34.503  0  0  0
  218  1  1  0.0  -2.146  11.492  47.864  0  0  0
  219  1  1  0.0 -12.956   7.012  32.570  0  0  0
  220  1  1  0.0 -23.578   9.759  22.307  0  0  0
  221  1  1  0.0 -25.538  11.182  22.526  0  0  0
  222  1  1  0.0 -27.880  11.427  23.128  0  0  0
  223  1  1  0.0 -30.043  10.401  23.551  0  0  0
  224  1  1  0.0 -31.533   8.497  23.301  0  0  0
  225  1  1  0.0 -32.113   6.441  22.141  0  0  0
  226  1  1  0.0 -31.894   5.018  20.181  0  0  0
  227  1  1  0.0 -31.292   4.773  17.839  0  0  0
  228  1  1  0.0 -30.869   5.799  15.675  0  0  0
  229  1  1  0.0 -31.120   7.703  14.185  0  0  0
  230  1  1  0.0   9.874   5.018  61.950  0  0  0
  231  1  1  0.0  10.477   4.773  59.607  0  0  0
  232  1  1  0.0  10.899   5.799  57.444  0  0  0
  233  1  1  0.0  10.649   7.703  55.954  0  0  0
  234  1  1  0.0 -22.510   9.108  22.979  0  0  0
  235  1  1  0.0 -24.236  10.819  22.965  0  0  0
  236  1  1  0.0 -26.511  11.492  23.499  0  0  0
  237  1  1  0.0 -28.796  10.869  24.045  0  0  0
  238  1  1  0.0 -30.553   9.188  24.061  0  0  0
  239  1  1  0.0 -31.442   7.092  23.209  0  0  0
  240  1  1  0.0 -31.455   5.381  21.482  0  0  0
  241  1  1  0.0 -30.921   4.708  19.208  0  0  0
  242  1  1  0.0 -30.376   5.331  16.922  0  0  0
  243  1  1  0.0 -30.360   7.012  15.166  0  0  0
  244  1  1  0.0  10.313   5.381  63.251  0  0  0
  245  1  1  0.0  10.847   4.708  60.977  0  0  0
  246  1  1  0.0  11.393   5.331  58.691  0  0  0
  247  1  1  0.0  11.409   7.012  56.935  0  0  0
  248  1  1  0.0  21.013  10.819  68.215  0  0  0
  249  1  1  0.0 -14.052   5.381  38.886  0  0  0
  250  1  1  0.0 -21.838   9.759  24.048  0  0  0
  251  1  1  0.0 -23.797  11.182  24.267  0  0  0
  252  1  1  0.0 -26.140  11.427  24.869  0  0  0
  253  1  1  0.0 -28.303  10.401  25.292  0  0  0
  254  1  1  0.0 -29.793   8.497  25.041  0  0  0
  255  1  1  0.0  17.971  11.182  66.035  0  0  0
  256  1  1  0.0 -30.154   5.018  21.922  0  0  0
  257  1  1  0.0 -29.552   4.773  19.579  0  0  0
  258  1  1  0.0 -29.129   5.799  17.416  0  0  0
  259  1  1  0.0 -29.379   7.703  15.926  0  0  0
  260  1  1  0.0  11.615   5.018  63.690  0  0  0
  261  1  1  0.0  12.217   4.773  61.348  0  0  0
  262  1  1  0.0  12.640   5.799  59.184  0  0  0
  263  1  1  0.0  12.389   7.703  57.694  0  0  0
  264  1  1  0.0  -7.090   5.381  45.848  0  0  0
  265  1  1  0.0 -20.769   9.108  24.719  0  0  0
  266  1  1  0.0 -22.496  10.819  24.706  0  0  0
  267  1  1  0.0 -24.770  11.492  25.240  0  0  0
  268  1  1  0.0 -27.056  10.869  25.785  0  0  0
  269  1  1  0.0 -28.812   9.188  25.801  0  0  0
  270  1  1  0.0  19.273  10.819  66.474  0  0  0
  271  1  1  0.0 -29.715   5.381  23.223  0  0  0
  272  1  1  0.0 -29.181   4.708  20.948  0  0  0
  273  1  1  0.0 -28.636   5.331  18.663  0  0  0
  274  1  1  0.0  12.068   7.092  66.718  0  0  0
  275  1  1  0.0  12.054   5.381  64.992  0  0  0
  276  1  1  0.0  12.588   4.708  62.717  0  0  0
  277  1  1  0.0  13.133   5.331  60.431  0  0  0
  278  1  1  0.0  13.149   7.012  58.675  0  0  0
  279  1  1  0.0 -19.918   7.012  25.608  0  0  0
  280  1  1  0.0 -20.097   9.759  25.788  0  0  0
  281  1  1  0.0 -22.057  11.182  26.007  0  0  0
  282  1  1  0.0 -24.399  11.427  26.609  0  0  0
  283  1  1  0.0 -26.563  10.401  27.032  0  0  0
  284  1  1  0.0 -28.053   8.497  26.782  0  0  0
  285  1  1  0.0  19.712  11.182  67.776  0  0  0
  286  1  1  0.0  17.369  11.427  68.378  0  0  0
  287  1  1  0.0  15.206  10.401  68.801  0  0  0
  288  1  1  0.0  13.716   8.497  68.550  0  0  0
  289  1  1  0.0  13.136   6.441  67.390  0  0  0
  290  1  1  0.0  13.355   5.018  65.431  0  0  0
  291  1  1  0.0  13.957   4.773  63.088  0  0  0
  292  1  1  0.0  14.380   5.799  60.925  0  0  0
  293  1  1  0.0  14.130   7.703  59.435  0  0  0
  294  1  1  0.0   2.527   9.759  48.413  0  0  0
  295  1  1  0.0  16.450   9.759  62.336  0  0  0
  296  1  1  0.0 -19.029   9.108  26.460  0  0  0
  297  1  1  0.0 -20.756  10.819  26.446  0  0  0
  298  1  1  0.0 -23.030  11.492  26.980  0  0  0
  299  1  1  0.0 -25.316  10.869  27.525  0  0  0
  300  1  1  0.0  22.740   9.108  68.229  0  0  0
  301  1  1  0.0 -27.961   7.092  26.690  0  0  0
  302  1  1  0.0 -27.975   5.381  24.963  0  0  0
  303  1  1  0.0  16.453  10.869  69.294  0  0  0
  304  1  1  0.0 -26.895   5.331  20.403  0  0  0
  305  1  1  0.0 -26.879   7.012  18.647  0  0  0
  306  1  1  0.0  13.794   5.381  66.732  0  0  0
  307  1  1  0.0  14.328   4.708  64.458  0  0  0
  308  1  1  0.0  14.873   5.331  62.172  0  0  0
  309  1  1  0.0  14.890   7.012  60.415  0  0  0
  310  1  1  0.0 -26.673   5.018  25.402  0  0  0
  311  1  1  0.0 -33.033   4.773  16.098  0  0  0
  312  1  1  0.0 -19.712   5.018  32.364  0  0  0
  313  1  1  0.0  16.946  10.401  70.541  0  0  0
  314  1  1  0.0 -32.610   5.799  13.935  0  0  0
  315  1  1  0.0 -19.110   4.773  30.021  0  0  0
  316  1  1  0.0  15.456   8.497  70.291  0  0  0
  317  1  1  0.0 -32.860   7.703  12.445  0  0  0
  318  1  1  0.0 -18.687   5.799  27.858  0  0  0
  319  1  1  0.0  14.876   6.441  69.130  0  0  0
  320  1  1  0.0 -11.725   5.799  34.819  0  0  0
  321  1  1  0.0 -18.937   7.703  26.368  0  0  0
  322  1  1  0.0 -11.976   7.703  33.329  0  0  0
  323  1  1  0.0 -18.357   9.759  27.528  0  0  0
  324  1  1  0.0 -20.317  11.182  27.747  0  0  0
  325  1  1  0.0 -22.659  11.427  28.350  0  0  0
  326  1  1  0.0 -24.822  10.401  28.772  0  0  0
  327  1  1  0.0 -26.312   8.497  28.522  0  0  0
  328  1  1  0.0 -26.892   6.441  27.362  0  0  0
  329  1  1  0.0  19.110  11.427  70.118  0  0  0
  330  1  1  0.0 -26.071   4.773  23.060  0  0  0
  331  1  1  0.0 -25.648   5.799  20.896  0  0  0
  332  1  1  0.0 -25.899   7.703  19.406  0  0  0
  333  1  1  0.0  15.095   5.018  67.171  0  0  0
  334  1  1  0.0  15.698   4.773  64.828  0  0  0
  335  1  1  0.0  16.121   5.799  62.665  0  0  0
  336  1  1  0.0  15.870   7.703  61.175  0  0  0
  337  1  1  0.0 -17.289   9.108  28.200  0  0  0
  338  1  1  0.0 -19.015  10.819  28.186  0  0  0
  339  1  1  0.0 -21.290  11.492  28.720  0  0  0
  340  1  1  0.0 -23.575  10.869  29.266  0  0  0
  341  1  1  0.0 -25.332   9.188  29.282  0  0  0
  342  1  1  0.0 -26.220   7.092  28.430  0  0  0
  343  1  1  0.0 -26.234   5.381  26.704  0  0  0
  344  1  1  0.0 -25.700   4.708  24.429  0  0  0
  345  1  1  0.0 -25.155   5.331  22.143  0  0  0
  346  1  1  0.0 -25.139   7.012  20.387  0  0  0
  347  1  1  0.0  15.535   5.381  68.472  0  0  0
  348  1  1  0.0  16.068   4.708  66.198  0  0  0
  349  1  1  0.0  16.614   5.331  63.912  0  0  0
  350  1  1  0.0  16.630   7.012  62.156  0  0  0
  351  1  1  0.0 -16.617   9.759  29.269  0  0  0
  352  1  1  0.0 -18.576  11.182  29.488  0  0  0
  353  1  1  0.0 -20.919  11.427  30.090  0  0  0
  354  1  1  0.0 -23.082  10.401  30.513  0  0  0
  355  1  1  0.0  25.152   9.759  71.037  0  0  0
  356  1  1  0.0 -25.152   6.441  29.102  0  0  0
  357  1  1  0.0 -24.933   5.018  27.143  0  0  0
  358  1  1  0.0 -24.331   4.773  24.800  0  0  0
  359  1  1  0.0 -23.908   5.799  22.637  0  0  0
  360  1  1  0.0 -24.158   7.703  21.147  0  0  0
  361  1  1  0.0  16.836   5.018  68.911  0  0  0
  362  1  1  0.0  17.438   4.773  66.569  0  0  0
  363  1  1  0.0  17.861   5.799  64.406  0  0  0
  364  1  1  0.0  17.611   7.703  62.916  0  0  0
  365  1  1  0.0  31.894  11.182  79.958  0  0  0
  366  1  1  0.0 -15.548   9.108  29.941  0  0  0
  367  1  1  0.0 -17.275  10.819  29.927  0  0  0
  368  1  1  0.0 -19.549  11.492  30.461  0  0  0
  369  1  1  0.0 -21.835  10.869  31.006  0  0  0
  370  1  1  0.0 -23.591   9.188  31.022  0  0  0
  371  1  1  0.0 -24.480   7.092  30.171  0  0  0
  372  1  1  0.0 -24.494   5.381  28.444  0  0  0
  373  1  1  0.0 -23.960   4.708  26.170  0  0  0
  374  1  1  0.0 -23.414   5.331  23.884  0  0  0
  375  1  1  0.0 -23.398   7.012  22.127  0  0  0
  376  1  1  0.0  17.275   5.381  70.213  0  0  0
  377  1  1  0.0  17.809   4.708  67.938  0  0  0
  378  1  1  0.0  18.354   5.331  65.653  0  0  0
  379  1  1  0.0  18.370   7.012  63.896  0  0  0
  380  1  1  0.0 -14.038   7.092  40.613  0  0  0
  381  1  1  0.0  -6.188   9.188  48.426  0  0  0
  382  1  1  0.0 -14.876   9.759  31.009  0  0  0
  383  1  1  0.0 -16.836  11.182  31.228  0  0  0
  384  1  1  0.0 -19.178  11.427  31.830  0  0  0
  385  1  1  0.0 -21.342  10.401  32.253  0  0  0
  386  1  1  0.0  26.892   9.759  72.778  0  0  0
  387  1  1  0.0  24.933  11.182  72.997  0  0  0
  388  1  1  0.0 -23.193   5.018  28.883  0  0  0
  389  1  1  0.0 -22.590   4.773  26.540  0  0  0
  390  1  1  0.0 -22.167   5.799  24.377  0  0  0
  391  1  1  0.0 -22.418   7.703  22.887  0  0  0
  392  1  1  0.0  18.576   5.018  70.652  0  0  0
  393  1  1  0.0  19.178   4.773  68.309  0  0  0
  394  1  1  0.0  19.601   5.799  66.146  0  0  0
  395  1  1  0.0  19.351   7.703  64.656  0  0  0
  396  1  1  0.0 -24.250   9.108  21.239  0  0  0
  397  1  1  0.0 -28.251  11.492  21.759  0  0  0
  398  1  1  0.0  17.519   9.108  63.007  0  0  0
  399  1  1  0.0 -13.808   9.108  31.681  0  0  0
  400  1  1  0.0 -15.535  10.819  31.667  0  0  0
  401  1  1  0.0 -17.809  11.492  32.201  0  0  0
  402  1  1  0.0 -20.095  10.869  32.746  0  0  0
  403  1  1  0.0  27.961   9.108  73.450  0  0  0
  404  1  1  0.0  26.234  10.819  73.436  0  0  0
  405  1  1  0.0  23.960  11.492  73.970  0  0  0
  406  1  1  0.0  21.674  10.869  74.515  0  0  0
  407  1  1  0.0  19.918   9.188  74.531  0  0  0
  408  1  1  0.0  19.029   7.092  73.680  0  0  0
  409  1  1  0.0  19.015   5.381  71.953  0  0  0
  410  1  1  0.0  19.549   4.708  69.679  0  0  0
  411  1  1  0.0  20.095   5.331  67.393  0  0  0
  412  1  1  0.0  20.111   7.012  65.636  0  0  0
  413  1  1  0.0  20.479  11.492  70.489  0  0  0
  414  1  1  0.0  11.232  10.869  64.073  0  0  0
  415  1  1  0.0 -19.273   5.381  33.665  0  0  0
  416  1  1  0.0  18.193  10.869  71.034  0  0  0
  417  1  1  0.0   9.475   9.188  64.089  0  0  0
  418  1  1  0.0 -18.739   4.708  31.391  0  0  0
  419  1  1  0.0  16.437   9.188  71.051  0  0  0
  420  1  1  0.0   8.587   7.092  63.237  0  0  0
  421  1  1  0.0 -18.193   5.331  29.105  0  0  0
  422  1  1  0.0  15.548   7.092  70.199  0  0  0
  423  1  1  0.0 -11.232   5.331  36.066  0  0  0
  424  1  1  0.0 -18.177   7.012  27.348  0  0  0
  425  1  1  0.0 -11.216   7.012  34.310  0  0  0
  426  1  1  0.0 -13.136   9.759  32.749  0  0  0
  427  1  1  0.0 -15.095  11.182  32.968  0  0  0
  428  1  1  0.0 -17.438  11.427  33.571  0  0  0
  429  1  1  0.0 -19.601  10.401  33.993  0  0  0
  430  1  1  0.0 -21.091   8.497  33.743  0  0  0
  431  1  1  0.0  26.673  11.182  74.737  0  0  0
  432  1  1  0.0  24.331  11.427  75.339  0  0  0
  433  1  1  0.0  22.167  10.401  75.762  0  0  0
  434  1  1  0.0  20.677   8.497  75.512  0  0  0
  435  1  1  0.0  20.097   6.441  74.351  0  0  0
  436  1  1  0.0  20.317   5.018  72.392  0  0  0
  437  1  1  0.0  20.919   4.773  70.049  0  0  0
  438  1  1  0.0  21.342   5.799  67.886  0  0  0
  439  1  1  0.0  21.091   7.703  66.396  0  0  0
  440  1  1  0.0 -18.370   9.188  36.243  0  0  0
  441  1  1  0.0  25.319   6.441  79.573  0  0  0
  442  1  1  0.0 -12.068   9.108  33.421  0  0  0
  443  1  1  0.0 -13.794  10.819  33.407  0  0  0
  444  1  1  0.0 -16.068  11.492  33.941  0  0  0
  445  1  1  0.0 -18.354  10.869  34.487  0  0  0
  446  1  1  0.0  29.701   9.108  75.190  0  0  0
  447  1  1  0.0 -20.999   7.092  33.651  0  0  0
  448  1  1  0.0  25.700  11.492  75.710  0  0  0
  449  1  1  0.0  23.414  10.869  76.256  0  0  0
  450  1  1  0.0  21.658   9.188  76.272  0  0  0
  451  1  1  0.0  20.769   7.092  75.420  0  0  0
  452  1  1  0.0  20.756   5.381  73.693  0  0  0
  453  1  1  0.0  21.290   4.708  71.419  0  0  0
  454  1  1  0.0  21.835   5.331  69.133  0  0  0
  455  1  1  0.0  21.851   7.012  67.377  0  0  0
  456  1  1  0.0  18.739  11.492  68.749  0  0  0
  457  1  1  0.0  27.975  10.819  75.176  0  0  0
  458  1  1  0.0 -12.298   7.092  42.353  0  0  0
  459  1  1  0.0  13.518  11.492  63.528  0  0  0
  460  1  1  0.0  36.663   9.108  82.151  0  0  0
  461  1  1  0.0  15.792  10.819  62.994  0  0  0
  462  1  1  0.0 -11.396   9.759  34.490  0  0  0
  463  1  1  0.0 -13.355  11.182  34.709  0  0  0
  464  1  1  0.0 -15.698  11.427  35.311  0  0  0
  465  1  1  0.0 -17.861  10.401  35.734  0  0  0
  466  1  1  0.0 -19.351   8.497  35.483  0  0  0
  467  1  1  0.0 -19.931   6.441  34.323  0  0  0
  468  1  1  0.0  26.071  11.427  77.080  0  0  0
  469  1  1  0.0  23.908  10.401  77.503  0  0  0
  470  1  1  0.0  22.418   8.497  77.252  0  0  0
  471  1  1  0.0  21.838   6.441  76.092  0  0  0
  472  1  1  0.0  22.057   5.018  74.132  0  0  0
  473  1  1  0.0  22.659   4.773  71.790  0  0  0
  474  1  1  0.0  23.082   5.799  69.627  0  0  0
  475  1  1  0.0  22.832   7.703  68.137  0  0  0
  476  1  1  0.0 -12.311   5.381  40.626  0  0  0
  477  1  1  0.0 -10.327   9.108  35.162  0  0  0
  478  1  1  0.0 -12.054  10.819  35.148  0  0  0
  479  1  1  0.0 -14.328  11.492  35.682  0  0  0
  480  1  1  0.0 -16.614  10.869  36.227  0  0  0
  481  1  1  0.0  31.442   9.108  76.930  0  0  0
  482  1  1  0.0  29.715  10.819  76.917  0  0  0
  483  1  1  0.0  27.441  11.492  77.451  0  0  0
  484  1  1  0.0  25.155  10.869  77.996  0  0  0
  485  1  1  0.0  23.398   9.188  78.012  0  0  0
  486  1  1  0.0  22.510   7.092  77.160  0  0  0
  487  1  1  0.0  22.496   5.381  75.434  0  0  0
  488  1  1  0.0  23.030   4.708  73.159  0  0  0
  489  1  1  0.0  23.575   5.331  70.874  0  0  0
  490  1  1  0.0  23.591   7.012  69.117  0  0  0
  491  1  1  0.0  -9.655   9.759  36.230  0  0  0
  492  1  1  0.0 -11.615  11.182  36.449  0  0  0
  493  1  1  0.0 -13.957  11.427  37.051  0  0  0
  494  1  1  0.0 -16.121  10.401  37.474  0  0  0
  495  1  1  0.0 -17.611   8.497  37.224  0  0  0
  496  1  1  0.0 -18.191   6.441  36.064  0  0  0
  497  1  1  0.0 -17.971   5.018  34.104  0  0  0
  498  1  1  0.0 -17.369   4.773  31.762  0  0  0
  499  1  1  0.0 -16.946   5.799  29.598  0  0  0
  500  1  1  0.0 -17.197   7.703  28.108  0  0  0
  501  1  1  0.0  23.797   5.018  75.873  0  0  0
  502  1  1  0.0  24.399   4.773  73.530  0  0  0
  503  1  1  0.0  24.822   5.799  71.367  0  0  0
  504  1  1  0.0  24.572   7.703  69.877  0  0  0
  505  1  1  0.0  -8.587   9.108  36.902  0  0  0
  506  1  1  0.0  18.191   9.759  64.076  0  0  0
  507  1  1  0.0 -12.588  11.492  37.422  0  0  0
  508  1  1  0.0 -14.873  10.869  37.968  0  0  0
  509  1  1  0.0 -16.630   9.188  37.984  0  0  0
  510  1  1  0.0 -24.572   8.497  30.262  0  0  0
  511  1  1  0.0 -17.532   5.381  35.405  0  0  0
  512  1  1  0.0  16.231  11.182  64.295  0  0  0
  513  1  1  0.0 -16.453   5.331  30.845  0  0  0
  514  1  1  0.0 -16.437   7.012  29.089  0  0  0
  515  1  1  0.0  24.236   5.381  77.174  0  0  0
  516  1  1  0.0  23.193  11.182  71.256  0  0  0
  517  1  1  0.0  25.316   5.331  72.614  0  0  0
  518  1  1  0.0  13.889  11.427  64.897  0  0  0
  519  1  1  0.0  30.154  11.182  78.218  0  0  0
  520  1  1  0.0  20.850  11.427  71.859  0  0  0
  521  1  1  0.0  11.725  10.401  65.320  0  0  0
  522  1  1  0.0  27.811  11.427  78.820  0  0  0
  523  1  1  0.0 -35.594   6.441  18.660  0  0  0
  524  1  1  0.0  18.687  10.401  72.281  0  0  0
  525  1  1  0.0  10.235   8.497  65.070  0  0  0
  526  1  1  0.0  25.648  10.401  79.243  0  0  0
  527  1  1  0.0  17.197   8.497  72.031  0  0  0
  528  1  1  0.0   9.655   6.441  63.909  0  0  0
  529  1  1  0.0  24.158   8.497  78.993  0  0  0
  530  1  1  0.0  16.617   6.441  70.871  0  0  0
  531  1  1  0.0  -9.985   5.799  36.560  0  0  0
  532  1  1  0.0  23.578   6.441  77.832  0  0  0
  533  1  1  0.0  -7.915   9.759  37.970  0  0  0
  534  1  1  0.0  -9.874  11.182  38.190  0  0  0
  535  1  1  0.0 -12.217  11.427  38.792  0  0  0
  536  1  1  0.0 -14.380  10.401  39.215  0  0  0
  537  1  1  0.0  33.854   9.759  79.739  0  0  0
  538  1  1  0.0 -16.450   6.441  37.804  0  0  0
  539  1  1  0.0 -16.231   5.018  35.844  0  0  0
  540  1  1  0.0 -15.629   4.773  33.502  0  0  0
  541  1  1  0.0 -15.206   5.799  31.339  0  0  0
  542  1  1  0.0 -28.633   6.441  25.621  0  0  0
  543  1  1  0.0  25.538   5.018  77.613  0  0  0
  544  1  1  0.0  26.140   4.773  75.271  0  0  0
  545  1  1  0.0  14.710   9.759  60.595  0  0  0
  546  1  1  0.0  26.312   7.703  71.617  0  0  0
  547  1  1  0.0  29.457   5.381  82.395  0  0  0
  548  1  1  0.0  21.671   9.759  67.557  0  0  0
  549  1  1  0.0  -8.573  10.819  38.629  0  0  0
  550  1  1  0.0 -10.847  11.492  39.163  0  0  0
  551  1  1  0.0 -13.133  10.869  39.708  0  0  0
  552  1  1  0.0  34.922   9.108  80.411  0  0  0
  553  1  1  0.0  33.196  10.819  80.397  0  0  0
  554  1  1  0.0  30.921  11.492  80.931  0  0  0
  555  1  1  0.0  28.636  10.869  81.477  0  0  0
  556  1  1  0.0  26.879   9.188  81.493  0  0  0
  557  1  1  0.0  25.990   7.092  80.641  0  0  0
  558  1  1  0.0  25.977   5.381  78.914  0  0  0
  559  1  1  0.0  26.511   4.708  76.640  0  0  0
  560  1  1  0.0  27.056   5.331  74.354  0  0  0
  561  1  1  0.0  27.072   7.012  72.598  0  0  0
  562  1  1  0.0 -14.710   6.441  39.544  0  0  0
  563  1  1  0.0  10.408  11.427  61.416  0  0  0
  564  1  1  0.0  28.633   9.759  74.518  0  0  0
  565  1  1  0.0  -6.175   9.759  39.711  0  0  0
  566  1  1  0.0  -8.134  11.182  39.930  0  0  0
  567  1  1  0.0 -10.477  11.427  40.532  0  0  0
  568  1  1  0.0 -12.640  10.401  40.955  0  0  0
  569  1  1  0.0 -14.130   8.497  40.705  0  0  0
  570  1  1  0.0  33.635  11.182  81.699  0  0  0
  571  1  1  0.0  31.292  11.427  82.301  0  0  0
  572  1  1  0.0  29.129  10.401  82.724  0  0  0
  573  1  1  0.0  27.639   8.497  82.473  0  0  0
  574  1  1  0.0 -13.716   7.703  31.589  0  0  0
  575  1  1  0.0  27.278   5.018  79.353  0  0  0
  576  1  1  0.0  27.880   4.773  77.011  0  0  0
  577  1  1  0.0  28.303   5.799  74.848  0  0  0
  578  1  1  0.0  28.053   7.703  73.358  0  0  0
  579  1  1  0.0  35.594   9.759  81.479  0  0  0
  580  1  1  0.0 -19.259   7.092  35.392  0  0  0
  581  1  1  0.0  -5.106   9.108  40.383  0  0  0
  582  1  1  0.0  -6.833  10.819  40.369  0  0  0
  583  1  1  0.0  -9.107  11.492  40.903  0  0  0
  584  1  1  0.0 -11.393  10.869  41.448  0  0  0
  585  1  1  0.0 -13.149   9.188  41.464  0  0  0
  586  1  1  0.0  34.936  10.819  82.138  0  0  0
  587  1  1  0.0  32.662  11.492  82.672  0  0  0
  588  1  1  0.0  30.376  10.869  83.217  0  0  0
  589  1  1  0.0  28.619   9.188  83.233  0  0  0
  590  1  1  0.0  27.731   7.092  82.381  0  0  0